# 3-Makefile

#Setting variables
CC = gcc
SRC = main.c holberton.c
NAME = holberton
OBJ = $(SRC:.c=.o) # Substitution References
RM = rm -f
# Rule all: Build the holberton excutable file
# 1. Implicity rule to updating .o files
# 2. Then compile with .o files and executable
all: $(OBJ)
	$(CC) $(OBJ) -o $(NAME)

# This is declare to making this rules a prerequiste of the special target
.PHONY: clean oclean fclean re

# Delete all Emacs and VIm temporary files along with the excutable
clean:
	$(RM) *~ $(NAME)

# Delete all Emacs and Vime temporary files, the excutable,
# and the object files
fclean:
	$(RM) *~ $(NAME)
	$(RM) $(OBJ)

# Forces recompilation of all source files
re: oclean all
