# 3-Makefile

#Setting variables
CC = gcc
SRC = main.c school.c
NAME = school
OBJ = $(SRC:.c=.o) # Substitution References
RM = rm -f
# Rule all: Build the holberton excutable file
# 1. Implicity rule to updating .o files
# 2. Then compile with .o files and executable
all: $(OBJ)
	$(CC) $(OBJ) -o $(NAME)

# Delete all Emacs and VIm temporary files along with the excutable
clean:
	$(RM) *~ $(NAME)

# Delete all Emacs and Vime temporary files, the excutable,
# and the object files
oclean:$(RM) $(OBJ)

fclean : clean oclean

# Forces recompilation of all source files
re: oclean all
